
*************** JDFTx 1.6.0  ***************

Start date and time: Thu Mar 18 19:29:43 2021
Executable jdftx with command-line: -i AlphaQuartzHybrid.in
Running on hosts (process indices):  ALIs-MacBook-Pro.local (0-3)
Divided in process groups (process indices):  0 (0)  1 (1)  2 (2)  3 (3)
Resource initialization completed at t[s]:      0.00
Run totals: 4 processes, 8 threads, 0 GPUs


Input parsed successfully to the following command list (including defaults):

basis kpoint-dependent
converge-empty-states yes
coords-type Lattice
core-overlap-check none
coulomb-interaction Periodic
davidson-band-ratio 1.1
dump End BandEigs EigStats DOS
dump-name clusterhybrid.$VAR
elec-cutoff 20
elec-eigen-algo Davidson
elec-ex-corr hyb-gga-b5050lyp
elec-n-bands 100
electronic-minimize  \
	dirUpdateScheme      FletcherReeves \
	linminMethod         DirUpdateRecommended \
	nIterations          100 \
	history              15 \
	knormThreshold       0 \
	energyDiffThreshold  1e-08 \
	nEnergyDiff          2 \
	alphaTstart          1 \
	alphaTmin            1e-10 \
	updateTestStepSize   yes \
	alphaTreduceFactor   0.1 \
	alphaTincreaseFactor 3 \
	nAlphaAdjustMax      3 \
	wolfeEnergy          0.0001 \
	wolfeGradient        0.9 \
	fdTest               no
electronic-scf  \
	nIterations	50 \
	energyDiffThreshold	1e-08 \
	residualThreshold	1e-07 \
	mixFraction	0.5 \
	qMetric	0.8 \
	history	10 \
	nEigSteps	2 \
	eigDiffThreshold	1e-08 \
	mixedVariable	Density \
	qKerker	0.8 \
	qKappa	-1 \
	verbose	no \
	mixFractionMag	1.5
exchange-regularization WignerSeitzTruncated
fluid None
fluid-ex-corr  lda-PZ
fluid-gummel-loop 10 1.000000e-05
fluid-minimize  \
	dirUpdateScheme      PolakRibiere \
	linminMethod         DirUpdateRecommended \
	nIterations          100 \
	history              15 \
	knormThreshold       0 \
	energyDiffThreshold  0 \
	nEnergyDiff          2 \
	alphaTstart          1 \
	alphaTmin            1e-10 \
	updateTestStepSize   yes \
	alphaTreduceFactor   0.1 \
	alphaTincreaseFactor 3 \
	nAlphaAdjustMax      3 \
	wolfeEnergy          0.0001 \
	wolfeGradient        0.9 \
	fdTest               no
fluid-solvent H2O 55.338 ScalarEOS \
	epsBulk 78.4 \
	pMol 0.92466 \
	epsInf 1.77 \
	Pvap 1.06736e-10 \
	sigmaBulk 4.62e-05 \
	Rvdw 2.61727 \
	Res 1.42 \
	tauNuc 343133 \
	poleEl 15 7 1
forces-output-coords Positions
ion Si   0.443661782448479  -0.000000000000000   0.333333343000000 0
ion Si  -0.000000000000000   0.443661782448479   0.666666687000003 0
ion Si   0.556338217551521   0.556338217551521  -0.000000000000000 0
ion O   0.392666141622150   0.306217736499984   0.242821497629914 0
ion O   0.693782263500016   0.086448405122166   0.576154840629914 0
ion O   0.913551594877835   0.607333858377850   0.909488154629915 0
ion O   0.306217736499984   0.392666141622150   0.757178532370088 0
ion O   0.086448405122166   0.693782263500016   0.423845159370086 0
ion O   0.607333858377850   0.913551594877835   0.090511838370088 0
ion-species SG15/$ID_ONCV_PBE.upf
ion-width 0
ionic-minimize  \
	dirUpdateScheme      L-BFGS \
	linminMethod         DirUpdateRecommended \
	nIterations          100 \
	history              15 \
	knormThreshold       0.0001 \
	energyDiffThreshold  1e-06 \
	nEnergyDiff          2 \
	alphaTstart          1 \
	alphaTmin            1e-10 \
	updateTestStepSize   yes \
	alphaTreduceFactor   0.1 \
	alphaTincreaseFactor 3 \
	nAlphaAdjustMax      3 \
	wolfeEnergy          0.0001 \
	wolfeGradient        0.9 \
	fdTest               no
kpoint   0.000000000000   0.000000000000   0.000000000000  1.00000000000000
kpoint-folding 1 1 1 
latt-move-scale 1 1 1
latt-scale 1.89 1.89 1.89 
lattice  \
	   4.604000091600001   -2.302000045800000    0.000000000000000  \
	   0.000000000000000    3.987181038300001    0.000000000000000  \
	   0.000000000000000    0.000000000000000    5.206999778700001 
lattice-minimize  \
	dirUpdateScheme      L-BFGS \
	linminMethod         DirUpdateRecommended \
	nIterations          0 \
	history              15 \
	knormThreshold       0 \
	energyDiffThreshold  1e-06 \
	nEnergyDiff          2 \
	alphaTstart          1 \
	alphaTmin            1e-10 \
	updateTestStepSize   yes \
	alphaTreduceFactor   0.1 \
	alphaTincreaseFactor 3 \
	nAlphaAdjustMax      3 \
	wolfeEnergy          0.0001 \
	wolfeGradient        0.9 \
	fdTest               no
lcao-params -1 1e-06 0.001
pcm-variant GLSSA13
spintype no-spin
subspace-rotation-factor 1 yes
symmetries automatic
symmetry-threshold 0.0001



---------- Setting up symmetries ----------

Found 24 point-group symmetries of the bravais lattice
Found 6 space-group symmetries with basis
Applied RMS atom displacement 1.18006e-07 bohrs to make symmetries exact.

---------- Initializing the Grid ----------
R = 
[      8.70156     -4.35078            0  ]
[            0      7.53577            0  ]
[            0            0      9.84123  ]
unit cell volume = 645.319
G =
[   0.722076   0.416891         -0  ]
[          0   0.833781          0  ]
[          0         -0   0.638455  ]
Minimum fftbox size, Smin = [  36  36  40  ]
Chosen fftbox size, S = [  36  36  40  ]

---------- Exchange Correlation functional ----------
Initialized LibXC exchange-correlation functional 'B5050LYP'
Will include 0.5 x exact exchange.

---------- Setting up pseudopotentials ----------
Width of ionic core gaussian charges (only for fluid interactions / plotting) set to 0

Reading pseudopotential file '/Users/ali/Desktop/JDFTX/build-withlibxc/pseudopotentials/SG15/si_ONCV_PBE.upf':
  'Si' pseudopotential, 'PBE' functional
  Generated using ONCVPSP code by D. R. Hamann
  Author: Martin Schlipf and Francois Gygi  Date: 150915.
  4 valence electrons, 2 orbitals, 4 projectors, 1510 radial grid points, with lMax = 1
  Transforming local potential to a uniform radial grid of dG=0.02 with 1454 points.
  Transforming nonlocal projectors to a uniform radial grid of dG=0.02 with 432 points.
    3S    l: 0   occupation:  2.0   eigenvalue: -0.397365
    3P    l: 1   occupation:  2.0   eigenvalue: -0.149981
  Transforming atomic orbitals to a uniform radial grid of dG=0.02 with 432 points.
  Core radius for overlap checks: 2.98 bohrs.
  Reading pulay file /Users/ali/Desktop/JDFTX/build-withlibxc/pseudopotentials/SG15/si_ONCV_PBE.pulay ... using dE_dnG = -1.805523e-07 computed for Ecut = 20.

Reading pseudopotential file '/Users/ali/Desktop/JDFTX/build-withlibxc/pseudopotentials/SG15/o_ONCV_PBE.upf':
  'O' pseudopotential, 'PBE' functional
  Generated using ONCVPSP code by D. R. Hamann
  Author: Martin Schlipf and Francois Gygi  Date: 150915.
  6 valence electrons, 2 orbitals, 4 projectors, 936 radial grid points, with lMax = 1
  Transforming local potential to a uniform radial grid of dG=0.02 with 1454 points.
  Transforming nonlocal projectors to a uniform radial grid of dG=0.02 with 432 points.
    2S    l: 0   occupation:  2.0   eigenvalue: -0.880572
    2P    l: 1   occupation:  4.0   eigenvalue: -0.331869
  Transforming atomic orbitals to a uniform radial grid of dG=0.02 with 432 points.
  Core radius for overlap checks: 1.29 bohrs.
  Reading pulay file /Users/ali/Desktop/JDFTX/build-withlibxc/pseudopotentials/SG15/o_ONCV_PBE.pulay ... using dE_dnG = -8.939675e-02 computed for Ecut = 20.

Initialized 2 species with 9 total atoms.

Folded 1 k-points by 1x1x1 to 1 k-points.

---------- Setting up k-points, bands, fillings ----------
No reducable k-points. 
Computing the number of bands and number of electrons
Calculating initial fillings.
nElectrons:  48.000000   nBands: 100   nStates: 1

----- Setting up reduced wavefunction bases (one per k-point) -----
average nbasis = 2737.000 , ideal nbasis = 2756.851

----- Initializing Supercell corresponding to k-point mesh -----
Lattice vector linear combinations in supercell:
[   1   0   0  ]
[   0   1   0  ]
[   0   0   1  ]
Supercell lattice vectors:
[  8.70156  -4.35078  0  ]
[  0  7.53577  0  ]
[  0  0  9.84123  ]

-------- Setting up exchange kernel --------
Creating Wigner-Seitz truncated kernel on k-point supercell with sample count [  38 38 42 ]
Constructing Wigner-Seitz cell: 8 faces (6 quadrilaterals, 2 hexagons)
Gaussian width for range separation: 0.458439 bohrs.
FFT grid for long-range part: [ 60 60 70 ].
Planning fourier transform ... Done.
Computing truncated long-range part in real space ... Done.
Adding short-range part in reciprocal space ... Done.
Splitting supercell kernel to unit-cell with k-points ... Done.

---------- Setting up exact exchange ----------
Optimizing transforms to minimize k-point pairs ... done (50 steps).
Reduced 1 k-pairs to 1 under symmetries.
Per-iteration cost relative to semi-local calculation ~ 30

---------- Setting up ewald sum ----------
Optimum gaussian width for ewald sums = 2.390348 bohr.
Real space sum over 1089 unit cells with max indices [  5  5  4  ]
Reciprocal space sum over 3825 terms with max indices [  7  7  8  ]

---------- Allocating electronic variables ----------
Initializing wave functions:  linear combination of atomic orbitals
Note: number of bands (100) exceeds available atomic orbitals (36)
Initializing semi-local functional for LCAO:
Initalized PBE GGA exchange.
Initalized PBE GGA correlation.
Si pseudo-atom occupations:   s ( 2 )  p ( 2 )
O pseudo-atom occupations:   s ( 2 )  p ( 4 )
	FillingsUpdate:  mu: +0.402718090  nElectrons: 48.000000
LCAOMinimize: Iter:   0  Etot: -106.5278502354883301  |grad|_K:  1.169e-02  alpha:  1.000e+00
	FillingsUpdate:  mu: +0.300000000  nElectrons: 48.000000
LCAOMinimize: Iter:   1  Etot: -106.8258065743270322  |grad|_K:  8.175e-04  alpha:  3.999e-01  linmin: -5.149e-01  cgtest:  7.201e-01  t[s]:      1.35
LCAOMinimize: Encountered beta<0, resetting CG.
	FillingsUpdate:  mu: +0.300000000  nElectrons: 48.000000
LCAOMinimize: Iter:   2  Etot: -106.8275941345625455  |grad|_K:  2.555e-04  alpha:  5.371e-01  linmin:  1.700e-02  cgtest: -4.056e-02  t[s]:      1.53
	FillingsUpdate:  mu: +0.300000000  nElectrons: 48.000000
LCAOMinimize: Iter:   3  Etot: -106.8277891339153456  |grad|_K:  2.568e-05  alpha:  6.050e-01  linmin: -9.549e-03  cgtest:  2.229e-01  t[s]:      1.70
LCAOMinimize: Encountered beta<0, resetting CG.
LCAOMinimize: None of the convergence criteria satisfied after 3 iterations.


---- Citations for features of the code used in this run ----

   Software package:
      R. Sundararaman, K. Letchworth-Weaver, K.A. Schwarz, D. Gunceler, Y. Ozhabes and T.A. Arias, 'JDFTx: software for joint density-functional theory', SoftwareX 6, 278 (2017)

   LibXC library of exchange-correlation functions:
      M. A. L. Marques, M. J. T. Oliveira and T. Burnus, Comput. Phys. Commun. 183, 2272 (2012)

   B5050LYP exchange-correlation functional:
      Y. Shao, M. Head-Gordon, and A. I. Krylov, J. Chem. Phys. 118, 4807 (2003)

   Pseudopotentials:
      M Schlipf and F Gygi, Comput. Phys. Commun. 196, 36 (2015)

   Wigner-Seitz truncated method for exact exchange:
      R. Sundararaman and T.A. Arias, Phys. Rev. B 87, 165122 (2013)

   gga-PBE exchange-correlation functional:
      J.P. Perdew, K. Burke and M. Ernzerhof, Phys. Rev. Lett. 77, 3865 (1996)

   Linear-tetrahedron sampling for density of states:
      G. Lehmann and M. Taut, Phys. status solidi (b) 54, 469 (1972)

This list may not be complete. Please suggest additional citations or
report any other bugs at https://github.com/shankar1729/jdftx/issues

Initialization completed successfully at t[s]:      1.73


-------- Electronic minimization -----------
Will mix electronic density at each iteration.
SCF: Cycle:  0   Etot: -107.207226385525075   dEtot: -5.244e-01   |Residual|: 2.296e-01   |deigs|: 3.510e-01  t[s]:     23.47
SCF: Cycle:  1   Etot: -107.214774455798846   dEtot: -7.548e-03   |Residual|: 1.407e-01   |deigs|: 5.232e-03  t[s]:     36.13
SCF: Cycle:  2   Etot: -107.220973116624222   dEtot: -6.199e-03   |Residual|: 4.971e-02   |deigs|: 7.015e-03  t[s]:     48.78
SCF: Cycle:  3   Etot: -107.221383593189387   dEtot: -4.105e-04   |Residual|: 2.341e-02   |deigs|: 1.185e-03  t[s]:     61.51
SCF: Cycle:  4   Etot: -107.221442542039853   dEtot: -5.895e-05   |Residual|: 1.261e-02   |deigs|: 2.280e-03  t[s]:     78.74
SCF: Cycle:  5   Etot: -107.221480197763270   dEtot: -3.766e-05   |Residual|: 8.263e-03   |deigs|: 5.514e-04  t[s]:     94.46
SCF: Cycle:  6   Etot: -107.221399389467877   dEtot: +8.081e-05   |Residual|: 1.401e-02   |deigs|: 1.434e-03  t[s]:    110.20
SCF: Cycle:  7   Etot: -107.221438449188000   dEtot: -3.906e-05   |Residual|: 8.131e-03   |deigs|: 4.375e-04  t[s]:    125.39
SCF: Cycle:  8   Etot: -107.221427650862822   dEtot: +1.080e-05   |Residual|: 9.348e-03   |deigs|: 7.043e-05  t[s]:    139.05
SCF: Cycle:  9   Etot: -107.221515580628591   dEtot: -8.793e-05   |Residual|: 3.385e-03   |deigs|: 8.516e-04  t[s]:    153.79
SCF: Cycle: 10   Etot: -107.221503173380754   dEtot: +1.241e-05   |Residual|: 4.230e-03   |deigs|: 5.630e-05  t[s]:    166.25
SCF: Cycle: 11   Etot: -107.221506883763979   dEtot: -3.710e-06   |Residual|: 2.984e-03   |deigs|: 8.662e-05  t[s]:    179.62
SCF: Cycle: 12   Etot: -107.221507655328409   dEtot: -7.716e-07   |Residual|: 2.972e-03   |deigs|: 3.779e-06  t[s]:    190.59
SCF: Cycle: 13   Etot: -107.221516615966294   dEtot: -8.961e-06   |Residual|: 1.214e-04   |deigs|: 1.806e-04  t[s]:    204.65
SCF: Cycle: 14   Etot: -107.221516836004554   dEtot: -2.200e-07   |Residual|: 5.792e-04   |deigs|: 3.023e-05  t[s]:    216.13
SCF: Cycle: 15   Etot: -107.221516635779977   dEtot: +2.002e-07   |Residual|: 6.212e-04   |deigs|: 6.076e-06  t[s]:    228.19
SCF: Cycle: 16   Etot: -107.221516665878113   dEtot: -3.010e-08   |Residual|: 5.452e-04   |deigs|: 5.697e-06  t[s]:    238.81
SCF: Cycle: 17   Etot: -107.221516945746600   dEtot: -2.799e-07   |Residual|: 1.124e-04   |deigs|: 2.651e-05  t[s]:    254.15
SCF: Cycle: 18   Etot: -107.221516979215579   dEtot: -3.347e-08   |Residual|: 1.255e-04   |deigs|: 1.308e-05  t[s]:    268.06
SCF: Cycle: 19   Etot: -107.221516969971802   dEtot: +9.244e-09   |Residual|: 1.277e-04   |deigs|: 1.789e-06  t[s]:    278.72
SCF: Cycle: 20   Etot: -107.221516965623309   dEtot: +4.348e-09   |Residual|: 1.369e-04   |deigs|: 4.638e-07  t[s]:    286.98
SCF: Cycle: 21   Etot: -107.221516980893909   dEtot: -1.527e-08   |Residual|: 3.987e-05   |deigs|: 6.044e-06  t[s]:    300.78
SCF: Cycle: 22   Etot: -107.221516983957400   dEtot: -3.063e-09   |Residual|: 8.270e-06   |deigs|: 1.618e-06  t[s]:    311.78
SCF: Cycle: 23   Etot: -107.221516983517446   dEtot: +4.400e-10   |Residual|: 2.888e-05   |deigs|: 1.473e-06  t[s]:    323.39
SCF: Cycle: 24   Etot: -107.221516984048449   dEtot: -5.310e-10   |Residual|: 1.221e-05   |deigs|: 1.106e-06  t[s]:    334.26
SCF: Cycle: 25   Etot: -107.221516984232252   dEtot: -1.838e-10   |Residual|: 3.233e-06   |deigs|: 5.011e-07  t[s]:    344.74
SCF: Converged (|Delta E|<1.000000e-08 for 2 iters).

Converging empty states (this may take a while): |deigs|: 3.575e-07

# Ionic positions in lattice coordinates:
ion Si   0.443661782448479   0.000000000000000   0.333333339222223 0
ion Si   0.000000000000000   0.443661782448479   0.666666672555556 0
ion Si   0.556338217551521   0.556338217551521   0.000000005888890 0
ion O   0.392666141622150   0.306217736499984   0.242821499685470 0
ion O   0.693782263500016   0.086448405122166   0.576154833018803 0
ion O   0.913551594877835   0.607333858377850   0.909488166352136 0
ion O   0.306217736499984   0.392666141622150   0.757178512092310 0
ion O   0.086448405122166   0.693782263500016   0.423845178758977 0
ion O   0.607333858377850   0.913551594877835   0.090511845425643 0

# Forces in Lattice coordinates:
force Si  -0.085427930374167   0.042713965187084   0.000000000000000 0
force Si   0.042713965187084  -0.085427930374167   0.000000000000000 0
force Si   0.042713965187084   0.042713965187084   0.000000000000000 0
force O   0.031122800038293  -0.128809532119293  -0.006806351981799 0
force O   0.097686732080999   0.031122800038295  -0.006806351981798 0
force O  -0.128809532119292   0.097686732080999  -0.006806351981799 0
force O  -0.128809532119293   0.031122800038293   0.006806351981798 0
force O   0.031122800038293   0.097686732080999   0.006806351981798 0
force O   0.097686732080998  -0.128809532119292   0.006806351981797 0

# Energy components:
   Eewald =      -79.1214773734095900
       EH =       31.6724153526330632
     Eloc =     -104.9335052747037054
      Enl =       -1.0277600810666545
   Epulay =       -0.0164996320313155
      Exc =      -13.5074966937119587
      EXX =      -11.7849861338135629
       KE =       71.4977928518714663
-------------------------------------
     Etot =     -107.2215169842322524

IonicMinimize: Iter:   0  Etot: -107.221516984232252  |grad|_K:  0.000e+00  t[s]:    351.85
IonicMinimize: Converged (|grad|_K<1.000000e-04).

#--- Lowdin population analysis ---
# oxidation-state Si +1.963 +1.963 +1.963
# oxidation-state O -0.866 -0.866 -0.866 -0.866 -0.866 -0.866


Dumping 'clusterhybrid.eigenvals' ... done
Dumping 'clusterhybrid.eigStats' ... 
	eMin: -0.822780 at state 0 ( [ +0.000000 +0.000000 +0.000000 ] spin 0 )
	HOMO: +0.032849 at state 0 ( [ +0.000000 +0.000000 +0.000000 ] spin 0 )
	mu  : +0.100000
	LUMO: +0.475571 at state 0 ( [ +0.000000 +0.000000 +0.000000 ] spin 0 )
	eMax: +1.952309 at state 0 ( [ +0.000000 +0.000000 +0.000000 ] spin 0 )
	HOMO-LUMO gap: +0.442723
	Optical gap  : +0.442723 at state 0 ( [ +0.000000 +0.000000 +0.000000 ] spin 0 )
Dumping 'clusterhybrid.dos' ... done.
End date and time: Thu Mar 18 19:35:35 2021  (Duration: 0-0:05:51.93)
Done!
