
*************** JDFTx 1.6.0  ***************

Start date and time: Thu Mar 18 18:39:20 2021
Executable jdftx with command-line: -i AlphaQuartz.in
Running on hosts (process indices):  ALIs-MacBook-Pro.local (0-3)
Divided in process groups (process indices):  0 (0)  1 (1)  2 (2)  3 (3)
Resource initialization completed at t[s]:      0.00
Run totals: 4 processes, 8 threads, 0 GPUs


Input parsed successfully to the following command list (including defaults):

basis kpoint-dependent
converge-empty-states yes
coords-type Lattice
core-overlap-check none
coulomb-interaction Periodic
davidson-band-ratio 1.1
dump End BandEigs EigStats DOS
dump Ionic State
dump-name cluster.$VAR
elec-cutoff 20
elec-eigen-algo Davidson
elec-ex-corr gga-PBEsol
elec-n-bands 100
electronic-minimize  \
	dirUpdateScheme      FletcherReeves \
	linminMethod         DirUpdateRecommended \
	nIterations          100 \
	history              15 \
	knormThreshold       0 \
	energyDiffThreshold  1e-08 \
	nEnergyDiff          2 \
	alphaTstart          1 \
	alphaTmin            1e-10 \
	updateTestStepSize   yes \
	alphaTreduceFactor   0.1 \
	alphaTincreaseFactor 3 \
	nAlphaAdjustMax      3 \
	wolfeEnergy          0.0001 \
	wolfeGradient        0.9 \
	fdTest               no
electronic-scf  \
	nIterations	50 \
	energyDiffThreshold	1e-08 \
	residualThreshold	1e-07 \
	mixFraction	0.5 \
	qMetric	0.8 \
	history	10 \
	nEigSteps	2 \
	eigDiffThreshold	1e-08 \
	mixedVariable	Density \
	qKerker	0.8 \
	qKappa	-1 \
	verbose	no \
	mixFractionMag	1.5
exchange-regularization WignerSeitzTruncated
fluid None
fluid-ex-corr  lda-PZ
fluid-gummel-loop 10 1.000000e-05
fluid-minimize  \
	dirUpdateScheme      PolakRibiere \
	linminMethod         DirUpdateRecommended \
	nIterations          100 \
	history              15 \
	knormThreshold       0 \
	energyDiffThreshold  0 \
	nEnergyDiff          2 \
	alphaTstart          1 \
	alphaTmin            1e-10 \
	updateTestStepSize   yes \
	alphaTreduceFactor   0.1 \
	alphaTincreaseFactor 3 \
	nAlphaAdjustMax      3 \
	wolfeEnergy          0.0001 \
	wolfeGradient        0.9 \
	fdTest               no
fluid-solvent H2O 55.338 ScalarEOS \
	epsBulk 78.4 \
	pMol 0.92466 \
	epsInf 1.77 \
	Pvap 1.06736e-10 \
	sigmaBulk 4.62e-05 \
	Rvdw 2.61727 \
	Res 1.42 \
	tauNuc 343133 \
	poleEl 15 7 1
forces-output-coords Positions
ion Si   0.443661782448479  -0.000000000000000   0.333333343000000 0
ion Si  -0.000000000000000   0.443661782448479   0.666666687000003 0
ion Si   0.556338217551521   0.556338217551521  -0.000000000000000 0
ion O   0.392666141622150   0.306217736499984   0.242821497629914 0
ion O   0.693782263500016   0.086448405122166   0.576154840629914 0
ion O   0.913551594877835   0.607333858377850   0.909488154629915 0
ion O   0.306217736499984   0.392666141622150   0.757178532370088 0
ion O   0.086448405122166   0.693782263500016   0.423845159370086 0
ion O   0.607333858377850   0.913551594877835   0.090511838370088 0
ion-species GBRV/$ID_pbesol.uspp
ion-width 0
ionic-minimize  \
	dirUpdateScheme      L-BFGS \
	linminMethod         DirUpdateRecommended \
	nIterations          100 \
	history              15 \
	knormThreshold       0.0001 \
	energyDiffThreshold  1e-06 \
	nEnergyDiff          2 \
	alphaTstart          1 \
	alphaTmin            1e-10 \
	updateTestStepSize   yes \
	alphaTreduceFactor   0.1 \
	alphaTincreaseFactor 3 \
	nAlphaAdjustMax      3 \
	wolfeEnergy          0.0001 \
	wolfeGradient        0.9 \
	fdTest               no
kpoint   0.000000000000   0.000000000000   0.000000000000  1.00000000000000
kpoint-folding 6 6 6 
latt-move-scale 1 1 1
latt-scale 1.89 1.89 1.89 
lattice  \
	   4.604000091600001   -2.302000045800000    0.000000000000000  \
	   0.000000000000000    3.987181038300001    0.000000000000000  \
	   0.000000000000000    0.000000000000000    5.206999778700001 
lattice-minimize  \
	dirUpdateScheme      L-BFGS \
	linminMethod         DirUpdateRecommended \
	nIterations          0 \
	history              15 \
	knormThreshold       0 \
	energyDiffThreshold  1e-06 \
	nEnergyDiff          2 \
	alphaTstart          1 \
	alphaTmin            1e-10 \
	updateTestStepSize   yes \
	alphaTreduceFactor   0.1 \
	alphaTincreaseFactor 3 \
	nAlphaAdjustMax      3 \
	wolfeEnergy          0.0001 \
	wolfeGradient        0.9 \
	fdTest               no
lcao-params -1 1e-06 0.001
pcm-variant GLSSA13
spintype no-spin
subspace-rotation-factor 1 yes
symmetries automatic
symmetry-threshold 0.0001



---------- Setting up symmetries ----------

Found 24 point-group symmetries of the bravais lattice
Found 6 space-group symmetries with basis
Applied RMS atom displacement 1.18006e-07 bohrs to make symmetries exact.

---------- Initializing the Grid ----------
R = 
[      8.70156     -4.35078            0  ]
[            0      7.53577            0  ]
[            0            0      9.84123  ]
unit cell volume = 645.319
G =
[   0.722076   0.416891         -0  ]
[          0   0.833781          0  ]
[          0         -0   0.638455  ]
Minimum fftbox size, Smin = [  36  36  40  ]
Chosen fftbox size, S = [  36  36  40  ]

---------- Exchange Correlation functional ----------
Initalized PBEsol GGA exchange.
Initalized PBEsol GGA correlation.

---------- Setting up pseudopotentials ----------
Width of ionic core gaussian charges (only for fluid interactions / plotting) set to 0

Reading pseudopotential file '/Users/ali/Desktop/JDFTX/build-withlibxc/pseudopotentials/GBRV/si_pbesol.uspp':
  Title: Si.  Created by USPP 7.3.6 on 23-7-2013
  Reference state energy: -4.568560.  4 valence electrons in orbitals:
    |300>  occupation: 2  eigenvalue: -0.395743
    |310>  occupation: 2  eigenvalue: -0.149098
  lMax: 2  lLocal: 3  QijEcut: 5
  6 projectors sampled on a log grid with 627 points:
    l: 0  eig: -0.395743  rCut: 1.6
    l: 0  eig: 1.000000  rCut: 1.6
    l: 1  eig: -0.149098  rCut: 1.6
    l: 1  eig: 1.000000  rCut: 1.6
    l: 2  eig: -0.100000  rCut: 1.7
    l: 2  eig: 0.100000  rCut: 1.7
  Partial core density with radius 1.45
  Transforming core density to a uniform radial grid of dG=0.02 with 1454 points.
  Transforming local potential to a uniform radial grid of dG=0.02 with 1454 points.
  Transforming nonlocal projectors to a uniform radial grid of dG=0.02 with 432 points.
  Transforming density augmentations to a uniform radial grid of dG=0.02 with 1454 points.
  Transforming atomic orbitals to a uniform radial grid of dG=0.02 with 432 points.
  Core radius for overlap checks: 1.70 bohrs.

Reading pseudopotential file '/Users/ali/Desktop/JDFTX/build-withlibxc/pseudopotentials/GBRV/o_pbesol.uspp':
  Title: O.  Created by USPP 7.3.6 on 3-2-2014
  Reference state energy: -15.849885.  6 valence electrons in orbitals:
    |200>  occupation: 2  eigenvalue: -0.873214
    |210>  occupation: 4  eigenvalue: -0.330058
  lMax: 2  lLocal: 2  QijEcut: 6
  5 projectors sampled on a log grid with 511 points:
    l: 0  eig: -0.873214  rCut: 1.25
    l: 0  eig: 0.000000  rCut: 1.25
    l: 1  eig: -0.330058  rCut: 1.25
    l: 1  eig: 0.000000  rCut: 1.25
    l: 2  eig: 1.000000  rCut: 1.25
  Partial core density with radius 0.7
  Transforming core density to a uniform radial grid of dG=0.02 with 1454 points.
  Transforming local potential to a uniform radial grid of dG=0.02 with 1454 points.
  Transforming nonlocal projectors to a uniform radial grid of dG=0.02 with 432 points.
  Transforming density augmentations to a uniform radial grid of dG=0.02 with 1454 points.
  Transforming atomic orbitals to a uniform radial grid of dG=0.02 with 432 points.
  Core radius for overlap checks: 1.25 bohrs.

Initialized 2 species with 9 total atoms.

Folded 1 k-points by 6x6x6 to 216 k-points.

---------- Setting up k-points, bands, fillings ----------
Adding inversion symmetry to k-mesh for non-inversion-symmetric unit cell.
Reduced to 34 k-points under symmetry. 
Computing the number of bands and number of electrons
Calculating initial fillings.
nElectrons:  48.000000   nBands: 100   nStates: 34

----- Setting up reduced wavefunction bases (one per k-point) -----
average nbasis = 2756.801 , ideal nbasis = 2756.851

----- Initializing Supercell corresponding to k-point mesh -----
Lattice vector linear combinations in supercell:
[   6   0   0  ]
[   0   6   0  ]
[   0   0   6  ]
Supercell lattice vectors:
[  52.2094  -26.1047  0  ]
[  0  45.2146  0  ]
[  0  0  59.0474  ]

---------- Setting up ewald sum ----------
Optimum gaussian width for ewald sums = 2.390348 bohr.
Real space sum over 1089 unit cells with max indices [  5  5  4  ]
Reciprocal space sum over 3825 terms with max indices [  7  7  8  ]

---------- Allocating electronic variables ----------
Initializing wave functions:  linear combination of atomic orbitals
Note: number of bands (100) exceeds available atomic orbitals (36)
Si pseudo-atom occupations:   s ( 2 )  p ( 2 )
O pseudo-atom occupations:   s ( 2 )  p ( 4 )
	FillingsUpdate:  mu: +0.431642446  nElectrons: 48.000000
LCAOMinimize: Iter:   0  Etot: -107.7645013126948612  |grad|_K:  2.852e-03  alpha:  1.000e+00
	FillingsUpdate:  mu: +0.300000000  nElectrons: 48.000000
LCAOMinimize: Iter:   1  Etot: -108.3382019837178802  |grad|_K:  2.019e-04  alpha:  3.733e-01  linmin: -3.400e-01  cgtest:  8.485e-01  t[s]:      8.66
LCAOMinimize: Encountered beta<0, resetting CG.
	FillingsUpdate:  mu: +0.300000000  nElectrons: 48.000000
LCAOMinimize: Iter:   2  Etot: -108.3411805874960265  |grad|_K:  4.516e-05  alpha:  4.305e-01  linmin:  1.419e-02  cgtest: -4.810e-02  t[s]:     11.68
	FillingsUpdate:  mu: +0.300000000  nElectrons: 48.000000
LCAOMinimize: Iter:   3  Etot: -108.3414226898487698  |grad|_K:  4.840e-06  alpha:  7.046e-01  linmin: -6.935e-03  cgtest:  2.042e-01  t[s]:     14.63
LCAOMinimize: Encountered beta<0, resetting CG.
LCAOMinimize: None of the convergence criteria satisfied after 3 iterations.


---- Citations for features of the code used in this run ----

   Software package:
      R. Sundararaman, K. Letchworth-Weaver, K.A. Schwarz, D. Gunceler, Y. Ozhabes and T.A. Arias, 'JDFTx: software for joint density-functional theory', SoftwareX 6, 278 (2017)

   gga-PBEsol exchange-correlation functional:
      J.P. Perdew et al., Phys. Rev. Lett. 100, 136406 (2008)

   Pseudopotentials:
      KF Garrity, JW Bennett, KM Rabe and D Vanderbilt, Comput. Mater. Sci. 81, 446 (2014)

   Linear-tetrahedron sampling for density of states:
      G. Lehmann and M. Taut, Phys. status solidi (b) 54, 469 (1972)

This list may not be complete. Please suggest additional citations or
report any other bugs at https://github.com/shankar1729/jdftx/issues

Initialization completed successfully at t[s]:     15.89


-------- Electronic minimization -----------
Will mix electronic density at each iteration.
SCF: Cycle:  0   Etot: -108.681143549174891   dEtot: -3.397e-01   |Residual|: 2.223e-01   |deigs|: 3.599e-01  t[s]:     31.10
SCF: Cycle:  1   Etot: -108.706822098463434   dEtot: -2.568e-02   |Residual|: 8.696e-02   |deigs|: 4.427e-03  t[s]:     43.66
SCF: Cycle:  2   Etot: -108.709880988686038   dEtot: -3.059e-03   |Residual|: 3.233e-02   |deigs|: 4.256e-03  t[s]:     58.40
SCF: Cycle:  3   Etot: -108.710353911079636   dEtot: -4.729e-04   |Residual|: 6.707e-03   |deigs|: 2.133e-03  t[s]:     72.19
SCF: Cycle:  4   Etot: -108.710362852798326   dEtot: -8.942e-06   |Residual|: 1.453e-03   |deigs|: 6.090e-04  t[s]:     84.86
SCF: Cycle:  5   Etot: -108.710363790955398   dEtot: -9.382e-07   |Residual|: 3.730e-04   |deigs|: 2.438e-04  t[s]:     96.52
SCF: Cycle:  6   Etot: -108.710363858997226   dEtot: -6.804e-08   |Residual|: 1.598e-04   |deigs|: 2.694e-05  t[s]:    108.19
SCF: Cycle:  7   Etot: -108.710363874956940   dEtot: -1.596e-08   |Residual|: 1.635e-05   |deigs|: 1.668e-05  t[s]:    120.05
SCF: Cycle:  8   Etot: -108.710363875389845   dEtot: -4.329e-10   |Residual|: 5.580e-06   |deigs|: 3.465e-06  t[s]:    131.75
SCF: Cycle:  9   Etot: -108.710363875459734   dEtot: -6.989e-11   |Residual|: 1.322e-06   |deigs|: 2.689e-06  t[s]:    143.36
SCF: Converged (|Delta E|<1.000000e-08 for 2 iters).

Converging empty states (this may take a while): |deigs|: 1.853e-05

# Ionic positions in lattice coordinates:
ion Si   0.443661782448479   0.000000000000000   0.333333339222223 0
ion Si   0.000000000000000   0.443661782448479   0.666666672555556 0
ion Si   0.556338217551521   0.556338217551521   0.000000005888890 0
ion O   0.392666141622150   0.306217736499984   0.242821499685470 0
ion O   0.693782263500016   0.086448405122166   0.576154833018803 0
ion O   0.913551594877835   0.607333858377850   0.909488166352136 0
ion O   0.306217736499984   0.392666141622150   0.757178512092310 0
ion O   0.086448405122166   0.693782263500016   0.423845178758977 0
ion O   0.607333858377850   0.913551594877835   0.090511845425643 0

# Forces in Lattice coordinates:
force Si  -0.002607416722188   0.001303708361094   0.000000000000000 0
force Si   0.001303708361094  -0.002607416722188   0.000000000000000 0
force Si   0.001303708361094   0.001303708361094   0.000000000000000 0
force O   0.007939031592984  -0.007441937676859   0.004764604764407 0
force O  -0.000497093916126   0.007939031592987   0.004764604764409 0
force O  -0.007441937676858  -0.000497093916126   0.004764604764407 0
force O  -0.007441937676859   0.007939031592985  -0.004764604764409 0
force O   0.007939031592985  -0.000497093916126  -0.004764604764409 0
force O  -0.000497093916127  -0.007441937676860  -0.004764604764409 0

# Energy components:
   Eewald =      -79.1214773734095900
       EH =       32.5420295788185641
     Eloc =     -102.7592595380916407
      Enl =       16.0742424943091216
      Exc =      -28.6985227222103276
 Exc_core =        2.7970261221545920
       KE =       50.4555975629695652
-------------------------------------
     Etot =     -108.7103638754597341


Dumping 'cluster.wfns' ... done
Dumping 'cluster.ionpos' ... done
IonicMinimize: Iter:   0  Etot: -108.710363875459734  |grad|_K:  0.000e+00  t[s]:    169.21
IonicMinimize: Converged (|grad|_K<1.000000e-04).

#--- Lowdin population analysis ---
# oxidation-state Si +1.793 +1.793 +1.793
# oxidation-state O -0.794 -0.794 -0.794 -0.794 -0.794 -0.794


Dumping 'cluster.eigenvals' ... done
Dumping 'cluster.eigStats' ... 
	eMin: -0.565449 at state 0 ( [ +0.000000 +0.000000 +0.000000 ] spin 0 )
	HOMO: +0.155578 at state 16 ( [ +0.000000 +0.500000 +0.000000 ] spin 0 )
	mu  : +0.300000
	LUMO: +0.385901 at state 0 ( [ +0.000000 +0.000000 +0.000000 ] spin 0 )
	eMax: +1.828720 at state 1 ( [ +0.000000 +0.000000 +0.166667 ] spin 0 )
	HOMO-LUMO gap: +0.230323
	Optical gap  : +0.234125 at state 0 ( [ +0.000000 +0.000000 +0.000000 ] spin 0 )
Dumping 'cluster.dos' ... done.
End date and time: Thu Mar 18 18:42:10 2021  (Duration: 0-0:02:49.79)
Done!
